data_28035-ICSD
_database_code_ICSD                28035
_audit_creation_date               1980/01/01
_audit_update_record               1998/06/26
_chemical_name_systematic          'Lead Hydroxide Chloride'
_chemical_formula_structural       'Pb (O H) Cl'
_chemical_formula_sum              'H1 Cl1 O1 Pb1'
_chemical_name_mineral             Laurionite
_publ_section_title
;
The crystal structure of Laurionite, Pb (O H) Cl
;
loop_
_citation_id
_citation_journal_abbrev
_citation_year
_citation_journal_volume
_citation_page_first
_citation_page_last
_citation_journal_id_ASTM
primary
;
Zeitschrift fuer Kristallographie, Kristallgeometrie, Kristallphysik, 
Kristallchemie (-144,1977)
;
 1975 141 246 259 ZEKGAX
loop_
_publ_author_name
'Venetopoulos, C.C.'
'Rentzeperis, P.J.'
_cell_length_a                     9.6987(15)
_cell_length_b                     4.0203(8)
_cell_length_c                     7.1110(9)
_cell_angle_alpha                  90.
_cell_angle_beta                   90.
_cell_angle_gamma                  90.
_cell_volume                       277.27
_cell_formula_units_Z              4
_symmetry_space_group_name_H-M     'P c m n'
_symmetry_Int_Tables_number        62
_refine_ls_R_factor_all            0.057
loop_
_symmetry_equiv_pos_site_id
_symmetry_equiv_pos_as_xyz
  1	'-x+1/2, y, z+1/2'
  2	'x, -y+1/2, z'
  3	'x+1/2, y+1/2, -z+1/2'
  4	'-x, -y, -z'
  5	'x+1/2, -y, -z+1/2'
  6	'-x, y+1/2, -z'
  7	'-x+1/2, -y+1/2, z+1/2'
  8	'x, y, z'
loop_
_atom_type_symbol
_atom_type_oxidation_number
Cl1-  	-1
H1+   	1
O2-   	-2
Pb2+  	2
loop_
_atom_site_label
_atom_site_type_symbol
_atom_site_symmetry_multiplicity
_atom_site_Wyckoff_symbol
_atom_site_fract_x
_atom_site_fract_y
_atom_site_fract_z
_atom_site_occupancy
_atom_site_attached_hydrogens
_atom_site_B_iso_or_equiv
Pb1 Pb2+ 4 c 0.08770(7) 0.25 0.79736(9) 1. 0 0 
O1 O2- 4 c 0.0422(13) 0.25 0.1223(20) 1. 0 0 
Cl1 Cl1- 4 c 0.8202(4) 0.25 0.5564(6) 1. 0 0 
H1 H1+ 4 c 0.11 0.25 0.223 1. 0 3. 



