data_4240-ICSD
_database_code_ICSD                4240
_audit_creation_date               1980/01/01
_audit_update_record               1999/01/19
_chemical_name_systematic          'Dilead Dichloride Carbonate'
_chemical_formula_structural       'Pb2 Cl2 (C O3)'
_chemical_formula_sum              'C1 Cl2 O3 Pb2'
_chemical_name_mineral             Phosgenite
_publ_section_title
;
Reexamination of the crystal structure of phosgenite, Pb2 Cl2 (C O3)
;
loop_
_citation_id
_citation_journal_abbrev
_citation_year
_citation_journal_volume
_citation_page_first
_citation_page_last
_citation_journal_id_ASTM
primary 'Tschermaks Mineralogische und Petrographische Mitteilungen (-1978)'
 1974 21 101 109 MPMTAG
loop_
_publ_author_name
'Giuseppetti, G.'
'Tadini, C.'
_cell_length_a                     8.160(4)
_cell_length_b                     8.160(4)
_cell_length_c                     8.883(6)
_cell_angle_alpha                  90.
_cell_angle_beta                   90.
_cell_angle_gamma                  90.
_cell_volume                       591.48
_cell_formula_units_Z              4
_symmetry_space_group_name_H-M     'P 4/m b m'
_symmetry_Int_Tables_number        127
_refine_ls_R_factor_all            0.032
loop_
_symmetry_equiv_pos_site_id
_symmetry_equiv_pos_as_xyz
  1	'y+1/2, x+1/2, -z'
  2	'-y+1/2, -x+1/2, -z'
  3	'-y, x, -z'
  4	'y, -x, -z'
  5	'x+1/2, -y+1/2, -z'
  6	'-x+1/2, y+1/2, -z'
  7	'x, y, -z'
  8	'-x, -y, -z'
  9	'-y+1/2, -x+1/2, z'
 10	'y+1/2, x+1/2, z'
 11	'y, -x, z'
 12	'-y, x, z'
 13	'-x+1/2, y+1/2, z'
 14	'x+1/2, -y+1/2, z'
 15	'-x, -y, z'
 16	'x, y, z'
loop_
_atom_type_symbol
_atom_type_oxidation_number
C4+   	4
Cl1-  	-1
O2-   	-2
Pb2+  	2
loop_
_atom_site_label
_atom_site_type_symbol
_atom_site_symmetry_multiplicity
_atom_site_Wyckoff_symbol
_atom_site_fract_x
_atom_site_fract_y
_atom_site_fract_z
_atom_site_occupancy
_atom_site_attached_hydrogens
_atom_site_B_iso_or_equiv
Pb1 Pb2+ 8 k 0.1659(1) 0.6659(1) 0.2594(1) 1. 0 0 
Cl1 Cl1- 4 e 0 0 0.2428(8) 1. 0 0 
Cl2 Cl1- 4 h 0.3521(6) 0.8521(6) 0.5 1. 0 0 
O1 O2- 4 g 0.2110(16) 0.7110(16) 0 1. 0 1.22 
O2 O2- 8 k 0.3726(10) 0.8726(10) 0.1269(12) 1. 0 0.99 
C1 C4+ 4 g 0.3257(29) 0.8257(29) 0 1. 0 1.07 



